LAMMPS description

92160 atoms
1 atom types

-51.123800 51.123800 xlo xhi
-53.129460 53.129460 ylo yhi
-50.090880 50.090880 zlo zhi

Masses

1 63.546000

Atoms

1 1 -48.567610 -53.129460 -50.090880
2 1 -51.123800 -48.702010 -50.090880
3 1 -49.845700 -50.915730 -50.090880
4 1 -51.123800 -53.129460 -50.090880
5 1 -51.123800 -51.653640 -48.003760
6 1 -47.289510 -50.915730 -50.090880
7 1 -47.289510 -46.488280 -50.090880
8 1 -49.845700 -46.488280 -50.090880
9 1 -48.567610 -48.702010 -50.090880
10 1 -48.567610 -47.226190 -48.003760
11 1 -47.289510 -49.439920 -48.003760
12 1 -49.845700 -49.439920 -48.003760
13 1 -48.567610 -51.653640 -48.003760
14 1 -48.567610 -50.177820 -45.916640
15 1 -47.289510 -52.391551 -45.916640
16 1 -49.845700 -52.391551 -45.916640
17 1 -49.845700 -45.012460 -48.003760
18 1 -51.123800 -47.226190 -48.003760
19 1 -51.123800 -45.750370 -45.916640
20 1 -49.845700 -47.964100 -45.916640
21 1 -51.123800 -50.177820 -45.916640
22 1 -47.289510 -45.012460 -48.003760
23 1 -47.289510 -47.964100 -45.916640
24 1 -48.567610 -45.750370 -45.916640
25 1 -48.567610 -53.129460 -43.829520
26 1 -51.123800 -48.702010 -43.829520
27 1 -49.845700 -50.915730 -43.829520
28 1 -51.123800 -53.129460 -43.829520
29 1 -51.123800 -51.653640 -41.742400
30 1 -47.289510 -50.915730 -43.829520
31 1 -47.289510 -46.488280 -43.829520
32 1 -49.845700 -46.488280 -43.829520
33 1 -48.567610 -48.702010 -43.829520
34 1 -48.567610 -47.226190 -41.742400
35 1 -47.289510 -49.439920 -41.742400
36 1 -49.845700 -49.439920 -41.742400
37 1 -48.567610 -51.653640 -41.742400
38 1 -48.567610 -50.177820 -39.655280
39 1 -47.289510 -52.391551 -39.655280
40 1 -49.845700 -52.391551 -39.655280
41 1 -49.845700 -45.012460 -41.742400
42 1 -51.123800 -47.226190 -41.742400
43 1 -51.123800 -45.750370 -39.655280
44 1 -49.845700 -47.964100 -39.655280
45 1 -51.123800 -50.177820 -39.655280
46 1 -47.289510 -45.012460 -41.742400
47 1 -47.289510 -47.964100 -39.655280
48 1 -48.567610 -45.750370 -39.655280
49 1 -48.567610 -53.129460 -37.568160
50 1 -51.123800 -48.702010 -37.568160
51 1 -49.845700 -50.915730 -37.568160
52 1 -51.123800 -53.129460 -37.568160
53 1 -51.123800 -51.653640 -35.481040
54 1 -47.289510 -50.915730 -37.568160
55 1 -47.289510 -46.488280 -37.568160
56 1 -49.845700 -46.488280 -37.568160
57 1 -48.567610 -48.702010 -37.568160
58 1 -48.567610 -47.226190 -35.481040
59 1 -47.289510 -49.439920 -35.481040
60 1 -49.845700 -49.439920 -35.481040
61 1 -48.567610 -51.653640 -35.481040
62 1 -48.567610 -50.177820 -33.393920
63 1 -47.289510 -52.391551 -33.393920
64 1 -49.845700 -52.391551 -33.393920
65 1 -49.845700 -45.012460 -35.481040
66 1 -51.123800 -47.226190 -35.481040
67 1 -51.123800 -45.750370 -33.393920
68 1 -49.845700 -47.964100 -33.393920
69 1 -51.123800 -50.177820 -33.393920
70 1 -47.289510 -45.012460 -35.481040
71 1 -47.289510 -47.964100 -33.393920
72 1 -48.567610 -45.750370 -33.393920
73 1 -48.567610 -53.129460 -31.306800
74 1 -51.123800 -48.702010 -31.306800
75 1 -49.845700 -50.915730 -31.306800
76 1 -51.123800 -53.129460 -31.306800
77 1 -51.123800 -51.653640 -29.219680
78 1 -47.289510 -50.915730 -31.306800
79 1 -47.289510 -46.488280 -31.306800
80 1 -49.845700 -46.488280 -31.306800
81 1 -48.567610 -48.702010 -31.306800
82 1 -48.567610 -47.226190 -29.219680
83 1 -47.289510 -49.439920 -29.219680
84 1 -49.845700 -49.439920 -29.219680
85 1 -48.567610 -51.653640 -29.219680
86 1 -48.567610 -50.177820 -27.132560
87 1 -47.289510 -52.391551 -27.132560
88 1 -49.845700 -52.391551 -27.132560
89 1 -49.845700 -45.012460 -29.219680
90 1 -51.123800 -47.226190 -29.219680
91 1 -51.123800 -45.750370 -27.132560
92 1 -49.845700 -47.964100 -27.132560
93 1 -51.123800 -50.177820 -27.132560
94 1 -47.289510 -45.012460 -29.219680
95 1 -47.289510 -47.964100 -27.132560
96 1 -48.567610 -45.750370 -27.132560
97 1 -48.567610 -53.129460 -25.045440
98 1 -51.123800 -48.702010 -25.045440
99 1 -49.845700 -50.915730 -25.045440
100 1 -51.123800 -53.129460 -25.045440
101 1 -51.123800 -51.653640 -22.958320
102 1 -47.289510 -50.915730 -25.045440
103 1 -47.289510 -46.488280 -25.045440
104 1 -49.845700 -46.488280 -25.045440
105 1 -48.567610 -48.702010 -25.045440
106 1 -48.567610 -47.226190 -22.958320
107 1 -47.289510 -49.439920 -22.958320
108 1 -49.845700 -49.439920 -22.958320
109 1 -48.567610 -51.653640 -22.958320
110 1 -48.567610 -50.177820 -20.871200
111 1 -47.289510 -52.391551 -20.871200
112 1 -49.845700 -52.391551 -20.871200
113 1 -49.845700 -45.012460 -22.958320
114 1 -51.123800 -47.226190 -22.958320
115 1 -51.123800 -45.750370 -20.871200
116 1 -49.845700 -47.964100 -20.871200
117 1 -51.123800 -50.177820 -20.871200
118 1 -47.289510 -45.012460 -22.958320
119 1 -47.289510 -47.964100 -20.871200
120 1 -48.567610 -45.750370 -20.871200
121 1 -48.567610 -53.129460 -18.784080
122 1 -51.123800 -48.702010 -18.784080
123 1 -49.845700 -50.915730 -18.784080
124 1 -51.123800 -53.129460 -18.784080
125 1 -51.123800 -51.653640 -16.696960
126 1 -47.289510 -50.915730 -18.784080
127 1 -47.289510 -46.488280 -18.784080
128 1 -49.845700 -46.488280 -18.784080
129 1 -48.567610 -48.702010 -18.784080
130 1 -48.567610 -47.226190 -16.696960
131 1 -47.289510 -49.439920 -16.696960
132 1 -49.845700 -49.439920 -16.696960
133 1 -48.567610 -51.653640 -16.696960
134 1 -48.567610 -50.177820 -14.609840
135 1 -47.289510 -52.391551 -14.609840
136 1 -49.845700 -52.391551 -14.609840
137 1 -49.845700 -45.012460 -16.696960
138 1 -51.123800 -47.226190 -16.696960
139 1 -51.123800 -45.750370 -14.609840
140 1 -49.845700 -47.964100 -14.609840
141 1 -51.123800 -50.177820 -14.609840
142 1 -47.289510 -45.012460 -16.696960
143 1 -47.289510 -47.964100 -14.609840
144 1 -48.567610 -45.750370 -14.609840
145 1 -48.567610 -53.129460 -12.522720
146 1 -51.123800 -48.702010 -12.522720
147 1 -49.845700 -50.915730 -12.522720
148 1 -51.123800 -53.129460 -12.522720
149 1 -51.123800 -51.653640 -10.435600
150 1 -47.289510 -50.915730 -12.522720
151 1 -47.289510 -46.488280 -12.522720
152 1 -49.845700 -46.488280 -12.522720
153 1 -48.567610 -48.702010 -12.522720
154 1 -48.567610 -47.226190 -10.435600
155 1 -47.289510 -49.439920 -10.435600
156 1 -49.845700 -49.439920 -10.435600
157 1 -48.567610 -51.653640 -10.435600
158 1 -48.567610 -50.177820 -8.348480
159 1 -47.289510 -52.391551 -8.348480
160 1 -49.845700 -52.391551 -8.348480
161 1 -49.845700 -45.012460 -10.435600
162 1 -51.123800 -47.226190 -10.435600
163 1 -51.123800 -45.750370 -8.348480
164 1 -49.845700 -47.964100 -8.348480
165 1 -51.123800 -50.177820 -8.348480
166 1 -47.289510 -45.012460 -10.435600
167 1 -47.289510 -47.964100 -8.348480
168 1 -48.567610 -45.750370 -8.348480
169 1 -48.567610 -53.129460 -6.261360
170 1 -51.123800 -48.702010 -6.261360
171 1 -49.845700 -50.915730 -6.261360
172 1 -51.123800 -53.129460 -6.261360
173 1 -51.123800 -51.653640 -4.174240
174 1 -47.289510 -50.915730 -6.261360
175 1 -47.289510 -46.488280 -6.261360
176 1 -49.845700 -46.488280 -6.261360
177 1 -48.567610 -48.702010 -6.261360
178 1 -48.567610 -47.226190 -4.174240
179 1 -47.289510 -49.439920 -4.174240
180 1 -49.845700 -49.439920 -4.174240
181 1 -48.567610 -51.653640 -4.174240
182 1 -48.567610 -50.177820 -2.087120
183 1 -47.289510 -52.391551 -2.087120
184 1 -49.845700 -52.391551 -2.087120
185 1 -49.845700 -45.012460 -4.174240
186 1 -51.123800 -47.226190 -4.174240
187 1 -51.123800 -45.750370 -2.087120
188 1 -49.845700 -47.964100 -2.087120
189 1 -51.123800 -50.177820 -2.087120
190 1 -47.289510 -45.012460 -4.174240
191 1 -47.289510 -47.964100 -2.087120
192 1 -48.567610 -45.750370 -2.087120
193 1 -48.567610 -53.129460 0.000000
194 1 -51.123800 -48.702010 0.000000
195 1 -49.845700 -50.915730 0.000000
196 1 -51.123800 -53.129460 0.000000
197 1 -51.123800 -51.653640 2.087120
198 1 -47.289510 -50.915730 0.000000
199 1 -47.289510 -46.488280 0.000000
200 1 -49.845700 -46.488280 0.000000
201 1 -48.567610 -48.702010 0.000000
202 1 -48.567610 -47.226190 2.087120
203 1 -47.289510 -49.439920 2.087120
204 1 -49.845700 -49.439920 2.087120
205 1 -48.567610 -51.653640 2.087120
206 1 -48.567610 -50.177820 4.174240
207 1 -47.289510 -52.391551 4.174240
208 1 -49.845700 -52.391551 4.174240
209 1 -49.845700 -45.012460 2.087120
210 1 -51.123800 -47.226190 2.087120
211 1 -51.123800 -45.750370 4.174240
212 1 -49.845700 -47.964100 4.174240
213 1 -51.123800 -50.177820 4.174240
214 1 -47.289510 -45.012460 2.087120
215 1 -47.289510 -47.964100 4.174240
216 1 -48.567610 -45.750370 4.174240
217 1 -48.567610 -53.129460 6.261360
218 1 -51.123800 -48.702010 6.261360
219 1 -49.845700 -50.915730 6.261360
220 1 -51.123800 -53.129460 6.261360
221 1 -51.123800 -51.653640 8.348480
222 1 -47.289510 -50.915730 6.261360
223 1 -47.289510 -46.488280 6.261360
224 1 -49.845700 -46.488280 6.261360
225 1 -48.567610 -48.702010 6.261360
226 1 -48.567610 -47.226190 8.348480
227 1 -47.289510 -49.439920 8.348480
228 1 -49.845700 -49.439920 8.348480
229 1 -48.567610 -51.653640 8.348480
230 1 -48.567610 -50.177820 10.435600
231 1 -47.289510 -52.391551 10.435600
232 1 -49.845700 -52.391551 10.435600
233 1 -49.845700 -45.012460 8.348480
234 1 -51.123800 -47.226190 8.348480
235 1 -51.123800 -45.750370 10.435600
236 1 -49.845700 -47.964100 10.435600
237 1 -51.123800 -50.177820 10.435600
238 1 -47.289510 -45.012460 8.348480
239 1 -47.289510 -47.964100 10.435600
240 1 -48.567610 -45.750370 10.435600
241 1 -48.567610 -53.129460 12.522720
242 1 -51.123800 -48.702010 12.522720
243 1 -49.845700 -50.915730 12.522720
244 1 -51.123800 -53.129460 12.522720
245 1 -51.123800 -51.653640 14.609840
246 1 -47.289510 -50.915730 12.522720
247 1 -47.289510 -46.488280 12.522720
248 1 -49.845700 -46.488280 12.522720
249 1 -48.567610 -48.702010 12.522720
250 1 -48.567610 -47.226190 14.609840
251 1 -47.289510 -49.439920 14.609840
252 1 -49.845700 -49.439920 14.609840
253 1 -48.567610 -51.653640 14.609840
254 1 -48.567610 -50.177820 16.696960
255 1 -47.289510 -52.391551 16.696960
256 1 -49.845700 -52.391551 16.696960
257 1 -49.845700 -45.012460 14.609840
258 1 -51.123800 -47.226190 14.609840
259 1 -51.123800 -45.750370 16.696960
260 1 -49.845700 -47.964100 16.696960
261 1 -51.123800 -50.177820 16.696960
262 1 -47.289510 -45.012460 14.609840
263 1 -47.289510 -47.964100 16.696960
264 1 -48.567610 -45.750370 16.696960
265 1 -48.567610 -53.129460 18.784080
266 1 -51.123800 -48.702010 18.784080
267 1 -49.845700 -50.915730 18.784080
268 1 -51.123800 -53.129460 18.784080
269 1 -51.123800 -51.653640 20.871200
270 1 -47.289510 -50.915730 18.784080
271 1 -47.289510 -46.488280 18.784080
272 1 -49.845700 -46.488280 18.784080
273 1 -48.567610 -48.702010 18.784080
274 1 -48.567610 -47.226190 20.871200
275 1 -47.289510 -49.439920 20.871200
276 1 -49.845700 -49.439920 20.871200
277 1 -48.567610 -51.653640 20.871200
278 1 -48.567610 -50.177820 22.958320
279 1 -47.289510 -52.391551 22.958320
280 1 -49.845700 -52.391551 22.958320
281 1 -49.845700 -45.012460 20.871200
282 1 -51.123800 -47.226190 20.871200
283 1 -51.123800 -45.750370 22.958320
284 1 -49.845700 -47.964100 22.958320
285 1 -51.123800 -50.177820 22.958320
286 1 -47.289510 -45.012460 20.871200
287 1 -47.289510 -47.964100 22.958320
288 1 -48.567610 -45.750370 22.958320
289 1 -48.567610 -53.129460 25.045440
290 1 -51.123800 -48.702010 25.045440
291 1 -49.845700 -50.915730 25.045440
292 1 -51.123800 -53.129460 25.045440
293 1 -51.123800 -51.653640 27.132560
294 1 -47.289510 -50.915730 25.045440
295 1 -47.289510 -46.488280 25.045440
296 1 -49.845700 -46.488280 25.045440
297 1 -48.567610 -48.702010 25.045440
298 1 -48.567610 -47.226190 27.132560
299 1 -47.289510 -49.439920 27.132560
300 1 -49.845700 -49.439920 27.132560
301 1 -48.567610 -51.653640 27.132560
302 1 -48.567610 -50.177820 29.219680
303 1 -47.289510 -52.391551 29.219680
304 1 -49.845700 -52.391551 29.219680
305 1 -49.845700 -45.012460 27.132560
306 1 -51.123800 -47.226190 27.132560
307 1 -51.123800 -45.750370 29.219680
308 1 -49.845700 -47.964100 29.219680
309 1 -51.123800 -50.177820 29.219680
310 1 -47.289510 -45.012460 27.132560
311 1 -47.289510 -47.964100 29.219680
312 1 -48.567610 -45.750370 29.219680
313 1 -48.567610 -53.129460 31.306800
314 1 -51.123800 -48.702010 31.306800
315 1 -49.845700 -50.915730 31.306800
316 1 -51.123800 -53.129460 31.306800
317 1 -51.123800 -51.653640 33.393920
318 1 -47.289510 -50.915730 31.306800
319 1 -47.289510 -46.488280 31.306800
320 1 -49.845700 -46.488280 31.306800
321 1 -48.567610 -48.702010 31.306800
322 1 -48.567610 -47.226190 33.393920
323 1 -47.289510 -49.439920 33.393920
324 1 -49.845700 -49.439920 33.393920
325 1 -48.567610 -51.653640 33.393920
326 1 -48.567610 -50.177820 35.481040
327 1 -47.289510 -52.391551 35.481040
328 1 -49.845700 -52.391551 35.481040
329 1 -49.845700 -45.012460 33.393920
330 1 -51.123800 -47.226190 33.393920
331 1 -51.123800 -45.750370 35.481040
332 1 -49.845700 -47.964100 35.481040
333 1 -51.123800 -50.177820 35.481040
334 1 -47.289510 -45.012460 33.393920
335 1 -47.289510 -47.964100 35.481040
336 1 -48.567610 -45.750370 35.481040
337 1 -48.567610 -53.129460 37.568160
338 1 -51.123800 -48.702010 37.568160
339 1 -49.845700 -50.915730 37.568160
340 1 -51.123800 -53.129460 37.568160
341 1 -51.123800 -51.653640 39.655280
342 1 -47.289510 -50.915730 37.568160
343 1 -47.289510 -46.488280 37.568160
344 1 -49.845700 -46.488280 37.568160
345 1 -48.567610 -48.702010 37.568160
346 1 -48.567610 -47.226190 39.655280
347 1 -47.289510 -49.439920 39.655280
348 1 -49.845700 -49.439920 39.655280
349 1 -48.567610 -51.653640 39.655280
350 1 -48.567610 -50.177820 41.742400
351 1 -47.289510 -52.391551 41.742400
352 1 -49.845700 -52.391551 41.742400
353 1 -49.845700 -45.012460 39.655280
354 1 -51.123800 -47.226190 39.655280
355 1 -51.123800 -45.750370 41.742400
356 1 -49.845700 -47.964100 41.742400
357 1 -51.123800 -50.177820 41.742400
358 1 -47.289510 -45.012460 39.655280
359 1 -47.289510 -47.964100 41.742400
360 1 -48.567610 -45.750370 41.742400
361 1 -48.567610 -53.129460 43.829520
362 1 -51.123800 -48.702010 43.829520
363 1 -49.845700 -50.915730 43.829520
364 1 -51.123800 -53.129460 43.829520
365 1 -51.123800 -51.653640 45.916640
366 1 -47.289510 -50.915730 43.829520
367 1 -47.289510 -46.488280 43.829520
368 1 -49.845700 -46.488280 43.829520
369 1 -48.567610 -48.702010 43.829520
370 1 -48.567610 -47.226190 45.916640
371 1 -47.289510 -49.439920 45.916640
372 1 -49.845700 -49.439920 45.916640
373 1 -48.567610 -51.653640 45.916640
374 1 -48.567610 -50.177820 48.003760
375 1 -47.289510 -52.391551 48.003760
376 1 -49.845700 -52.391551 48.003760
377 1 -49.845700 -45.012460 45.916640
378 1 -51.123800 -47.226190 45.916640
379 1 -51.123800 -45.750370 48.003760
380 1 -49.845700 -47.964100 48.003760
381 1 -51.123800 -50.177820 48.003760
382 1 -47.289510 -45.012460 45.916640
383 1 -47.289510 -47.964100 48.003760
384 1 -48.567610 -45.750370 48.003760
385 1 -48.567610 -44.274550 -50.090880
386 1 -51.123800 -39.847100 -50.090880
387 1 -49.845700 -42.060820 -50.090880
388 1 -51.123800 -44.274550 -50.090880
389 1 -51.123800 -42.798730 -48.003760
390 1 -47.289510 -42.060820 -50.090880
391 1 -47.289510 -37.633370 -50.090880
392 1 -49.845700 -37.633370 -50.090880
393 1 -48.567610 -39.847100 -50.090880
394 1 -48.567610 -38.371280 -48.003760
395 1 -47.289510 -40.585010 -48.003760
396 1 -49.845700 -40.585010 -48.003760
397 1 -48.567610 -42.798730 -48.003760
398 1 -48.567610 -41.322910 -45.916640
399 1 -47.289510 -43.536641 -45.916640
400 1 -49.845700 -43.536641 -45.916640
401 1 -49.845700 -36.157550 -48.003760
402 1 -51.123800 -38.371280 -48.003760
403 1 -51.123800 -36.895460 -45.916640
404 1 -49.845700 -39.109190 -45.916640
405 1 -51.123800 -41.322910 -45.916640
406 1 -47.289510 -36.157550 -48.003760
407 1 -47.289510 -39.109190 -45.916640
408 1 -48.567610 -36.895460 -45.916640
409 1 -48.567610 -44.274550 -43.829520
410 1 -51.123800 -39.847100 -43.829520
411 1 -49.845700 -42.060820 -43.829520
412 1 -51.123800 -44.274550 -43.829520
413 1 -51.123800 -42.798730 -41.742400
414 1 -47.289510 -42.060820 -43.829520
415 1 -47.289510 -37.633370 -43.829520
416 1 -49.845700 -37.633370 -43.829520
417 1 -48.567610 -39.847100 -43.829520
418 1 -48.567610 -38.371280 -41.742400
419 1 -47.289510 -40.585010 -41.742400
420 1 -49.845700 -40.585010 -41.742400
421 1 -48.567610 -42.798730 -41.742400
422 1 -48.567610 -41.322910 -39.655280
423 1 -47.289510 -43.536641 -39.655280
424 1 -49.845700 -43.536641 -39.655280
425 1 -49.845700 -36.157550 -41.742400
426 1 -51.123800 -38.371280 -41.742400
427 1 -51.123800 -36.895460 -39.655280
428 1 -49.845700 -39.109190 -39.655280
429 1 -51.123800 -41.322910 -39.655280
430 1 -47.289510 -36.157550 -41.742400
431 1 -47.289510 -39.109190 -39.655280
432 1 -48.567610 -36.895460 -39.655280
433 1 -48.567610 -44.274550 -37.568160
434 1 -51.123800 -39.847100 -37.568160
435 1 -49.845700 -42.060820 -37.568160
436 1 -51.123800 -44.274550 -37.568160
437 1 -51.123800 -42.798730 -35.481040
438 1 -47.289510 -42.060820 -37.568160
439 1 -47.289510 -37.633370 -37.568160
440 1 -49.845700 -37.633370 -37.568160
441 1 -48.567610 -39.847100 -37.568160
442 1 -48.567610 -38.371280 -35.481040
443 1 -47.289510 -40.585010 -35.481040
444 1 -49.845700 -40.585010 -35.481040
445 1 -48.567610 -42.798730 -35.481040
446 1 -48.567610 -41.322910 -33.393920
447 1 -47.289510 -43.536641 -33.393920
448 1 -49.845700 -43.536641 -33.393920
449 1 -49.845700 -36.157550 -35.481040
450 1 -51.123800 -38.371280 -35.481040
451 1 -51.123800 -36.895460 -33.393920
452 1 -49.845700 -39.109190 -33.393920
453 1 -51.123800 -41.322910 -33.393920
454 1 -47.289510 -36.157550 -35.481040
455 1 -47.289510 -39.109190 -33.393920
456 1 -48.567610 -36.895460 -33.393920
457 1 -48.567610 -44.274550 -31.306800
458 1 -51.123800 -39.847100 -31.306800
459 1 -49.845700 -42.060820 -31.306800
460 1 -51.123800 -44.274550 -31.306800
461 1 -51.123800 -42.798730 -29.219680
462 1 -47.289510 -42.060820 -31.306800
463 1 -47.289510 -37.633370 -31.306800
464 1 -49.845700 -37.633370 -31.306800
465 1 -48.567610 -39.847100 -31.306800
466 1 -48.567610 -38.371280 -29.219680
467 1 -47.289510 -40.585010 -29.219680
468 1 -49.845700 -40.585010 -29.219680
469 1 -48.567610 -42.798730 -29.219680
470 1 -48.567610 -41.322910 -27.132560
471 1 -47.289510 -43.536641 -27.132560
472 1 -49.845700 -43.536641 -27.132560
473 1 -49.845700 -36.157550 -29.219680
474 1 -51.123800 -38.371280 -29.219680
475 1 -51.123800 -36.895460 -27.132560
476 1 -49.845700 -39.109190 -27.132560
477 1 -51.123800 -41.322910 -27.132560
478 1 -47.289510 -36.157550 -29.219680
479 1 -47.289510 -39.109190 -27.132560
480 1 -48.567610 -36.895460 -27.132560
481 1 -48.567610 -44.274550 -25.045440
482 1 -51.123800 -39.847100 -25.045440
483 1 -49.845700 -42.060820 -25.045440
484 1 -51.123800 -44.274550 -25.045440
485 1 -51.123800 -42.798730 -22.958320
486 1 -47.289510 -42.060820 -25.045440
487 1 -47.289510 -37.633370 -25.045440
488 1 -49.845700 -37.633370 -25.045440
489 1 -48.567610 -39.847100 -25.045440
490 1 -48.567610 -38.371280 -22.958320
491 1 -47.289510 -40.585010 -22.958320
492 1 -49.845700 -40.585010 -22.958320
493 1 -48.567610 -42.798730 -22.958320
494 1 -48.567610 -41.322910 -20.871200
495 1 -47.289510 -43.536641 -20.871200
496 1 -49.845700 -43.536641 -20.871200
497 1 -49.845700 -36.157550 -22.958320
498 1 -51.123800 -38.371280 -22.958320
499 1 -51.123800 -36.895460 -20.871200
500 1 -49.845700 -39.109190 -20.871200
501 1 -51.123800 -41.322910 -20.871200
502 1 -47.289510 -36.157550 -22.958320
503 1 -47.289510 -39.109190 -20.871200
504 1 -48.567610 -36.895460 -20.871200
505 1 -48.567610 -44.274550 -18.784080
506 1 -51.123800 -39.847100 -18.784080
507 1 -49.845700 -42.060820 -18.784080
508 1 -51.123800 -44.274550 -18.784080
509 1 -51.123800 -42.798730 -16.696960
510 1 -47.289510 -42.060820 -18.784080
511 1 -47.289510 -37.633370 -18.784080
512 1 -49.845700 -37.633370 -18.784080
513 1 -48.567610 -39.847100 -18.784080
514 1 -48.567610 -38.371280 -16.696960
515 1 -47.289510 -40.585010 -16.696960
516 1 -49.845700 -40.585010 -16.696960
517 1 -48.567610 -42.798730 -16.696960
518 1 -48.567610 -41.322910 -14.609840
519 1 -47.289510 -43.536641 -14.609840
520 1 -49.845700 -43.536641 -14.609840
521 1 -49.845700 -36.157550 -16.696960
522 1 -51.123800 -38.371280 -16.696960
523 1 -51.123800 -36.895460 -14.609840
524 1 -49.845700 -39.109190 -14.609840
525 1 -51.123800 -41.322910 -14.609840
526 1 -47.289510 -36.157550 -16.696960
527 1 -47.289510 -39.109190 -14.609840
528 1 -48.567610 -36.895460 -14.609840
529 1 -48.567610 -44.274550 -12.522720
530 1 -51.123800 -39.847100 -12.522720
531 1 -49.845700 -42.060820 -12.522720
532 1 -51.123800 -44.274550 -12.522720
533 1 -51.123800 -42.798730 -10.435600
534 1 -47.289510 -42.060820 -12.522720
535 1 -47.289510 -37.633370 -12.522720
536 1 -49.845700 -37.633370 -12.522720
537 1 -48.567610 -39.847100 -12.522720
538 1 -48.567610 -38.371280 -10.435600
539 1 -47.289510 -40.585010 -10.435600
540 1 -49.845700 -40.585010 -10.435600
541 1 -48.567610 -42.798730 -10.435600
542 1 -48.567610 -41.322910 -8.348480
543 1 -47.289510 -43.536641 -8.348480
544 1 -49.845700 -43.536641 -8.348480
545 1 -49.845700 -36.157550 -10.435600
546 1 -51.123800 -38.371280 -10.435600
547 1 -51.123800 -36.895460 -8.348480
548 1 -49.845700 -39.109190 -8.348480
549 1 -51.123800 -41.322910 -8.348480
550 1 -47.289510 -36.157550 -10.435600
551 1 -47.289510 -39.109190 -8.348480
552 1 -48.567610 -36.895460 -8.348480
553 1 -48.567610 -44.274550 -6.261360
554 1 -51.123800 -39.847100 -6.261360
555 1 -49.845700 -42.060820 -6.261360
556 1 -51.123800 -44.274550 -6.261360
557 1 -51.123800 -42.798730 -4.174240
558 1 -47.289510 -42.060820 -6.261360
559 1 -47.289510 -37.633370 -6.261360
560 1 -49.845700 -37.633370 -6.261360
561 1 -48.567610 -39.847100 -6.261360
562 1 -48.567610 -38.371280 -4.174240
563 1 -47.289510 -40.585010 -4.174240
564 1 -49.845700 -40.585010 -4.174240
565 1 -48.567610 -42.798730 -4.174240
566 1 -48.567610 -41.322910 -2.087120
567 1 -47.289510 -43.536641 -2.087120
568 1 -49.845700 -43.536641 -2.087120
569 1 -49.845700 -36.157550 -4.174240
570 1 -51.123800 -38.371280 -4.174240
571 1 -51.123800 -36.895460 -2.087120
572 1 -49.845700 -39.109190 -2.087120
573 1 -51.123800 -41.322910 -2.087120
574 1 -47.289510 -36.157550 -4.174240
575 1 -47.289510 -39.109190 -2.087120
576 1 -48.567610 -36.895460 -2.087120
577 1 -48.567610 -44.274550 0.000000
578 1 -51.123800 -39.847100 0.000000
579 1 -49.845700 -42.060820 0.000000
580 1 -51.123800 -44.274550 0.000000
581 1 -51.123800 -42.798730 2.087120
582 1 -47.289510 -42.060820 0.000000
583 1 -47.289510 -37.633370 0.000000
584 1 -49.845700 -37.633370 0.000000
585 1 -48.567610 -39.847100 0.000000
586 1 -48.567610 -38.371280 2.087120
587 1 -47.289510 -40.585010 2.087120
588 1 -49.845700 -40.585010 2.087120
589 1 -48.567610 -42.798730 2.087120
590 1 -48.567610 -41.322910 4.174240
591 1 -47.289510 -43.536641 4.174240
592 1 -49.845700 -43.536641 4.174240
593 1 -49.845700 -36.157550 2.087120
594 1 -51.123800 -38.371280 2.087120
595 1 -51.123800 -36.895460 4.174240
596 1 -49.845700 -39.109190 4.174240
597 1 -51.123800 -41.322910 4.174240
598 1 -47.289510 -36.157550 2.087120
599 1 -47.289510 -39.109190 4.174240
600 1 -48.567610 -36.895460 4.174240
601 1 -48.567610 -44.274550 6.261360
602 1 -51.123800 -39.847100 6.261360
603 1 -49.845700 -42.060820 6.261360
604 1 -51.123800 -44.274550 6.261360
605 1 -51.123800 -42.798730 8.348480
606 1 -47.289510 -42.060820 6.261360
607 1 -47.289510 -37.633370 6.261360
608 1 -49.845700 -37.633370 6.261360
609 1 -48.567610 -39.847100 6.261360
610 1 -48.567610 -38.371280 8.348480
611 1 -47.289510 -40.585010 8.348480
612 1 -49.845700 -40.585010 8.348480
613 1 -48.567610 -42.798730 8.348480
614 1 -48.567610 -41.322910 10.435600
615 1 -47.289510 -43.536641 10.435600
616 1 -49.845700 -43.536641 10.435600
617 1 -49.845700 -36.157550 8.348480
618 1 -51.123800 -38.371280 8.348480
619 1 -51.123800 -36.895460 10.435600
620 1 -49.845700 -39.109190 10.435600
621 1 -51.123800 -41.322910 10.435600
622 1 -47.289510 -36.157550 8.348480
623 1 -47.289510 -39.109190 10.435600
624 1 -48.567610 -36.895460 10.435600
625 1 -48.567610 -44.274550 12.522720
626 1 -51.123800 -39.847100 12.522720
627 1 -49.845700 -42.060820 12.522720
628 1 -51.123800 -44.274550 12.522720
629 1 -51.123800 -42.798730 14.609840
630 1 -47.289510 -42.060820 12.522720
631 1 -47.289510 -37.633370 12.522720
632 1 -49.845700 -37.633370 12.522720
633 1 -48.567610 -39.847100 12.522720
634 1 -48.567610 -38.371280 14.609840
635 1 -47.289510 -40.585010 14.609840
636 1 -49.845700 -40.585010 14.609840
637 1 -48.567610 -42.798730 14.609840
638 1 -48.567610 -41.322910 16.696960
639 1 -47.289510 -43.536641 16.696960
640 1 -49.845700 -43.536641 16.696960
641 1 -49.845700 -36.157550 14.609840
642 1 -51.123800 -38.371280 14.609840
643 1 -51.123800 -36.895460 16.696960
644 1 -49.845700 -39.109190 16.696960
645 1 -51.123800 -41.322910 16.696960
646 1 -47.289510 -36.157550 14.609840
647 1 -47.289510 -39.109190 16.696960
648 1 -48.567610 -36.895460 16.696960
649 1 -48.567610 -44.274550 18.784080
650 1 -51.123800 -39.847100 18.784080
651 1 -49.845700 -42.060820 18.784080
652 1 -51.123800 -44.274550 18.784080
653 1 -51.123800 -42.798730 20.871200
654 1 -47.289510 -42.060820 18.784080
655 1 -47.289510 -37.633370 18.784080
656 1 -49.845700 -37.633370 18.784080
657 1 -48.567610 -39.847100 18.784080
658 1 -48.567610 -38.371280 20.871200
659 1 -47.289510 -40.585010 20.871200
660 1 -49.845700 -40.585010 20.871200
661 1 -48.567610 -42.798730 20.871200
662 1 -48.567610 -41.322910 22.958320
663 1 -47.289510 -43.536641 22.958320
664 1 -49.845700 -43.536641 22.958320
665 1 -49.845700 -36.157550 20.871200
666 1 -51.123800 -38.371280 20.871200
667 1 -51.123800 -36.895460 22.958320
668 1 -49.845700 -39.109190 22.958320
669 1 -51.123800 -41.322910 22.958320
670 1 -47.289510 -36.157550 20.871200
671 1 -47.289510 -39.109190 22.958320
672 1 -48.567610 -36.895460 22.958320
673 1 -48.567610 -44.274550 25.045440
674 1 -51.123800 -39.847100 25.045440
675 1 -49.845700 -42.060820 25.045440
676 1 -51.123800 -44.274550 25.045440
677 1 -51.123800 -42.798730 27.132560
678 1 -47.289510 -42.060820 25.045440
679 1 -47.289510 -37.633370 25.045440
680 1 -49.845700 -37.633370 25.045440
681 1 -48.567610 -39.847100 25.045440
682 1 -48.567610 -38.371280 27.132560
683 1 -47.289510 -40.585010 27.132560
684 1 -49.845700 -40.585010 27.132560
685 1 -48.567610 -42.798730 27.132560
686 1 -48.567610 -41.322910 29.219680
687 1 -47.289510 -43.536641 29.219680
688 1 -49.845700 -43.536641 29.219680
689 1 -49.845700 -36.157550 27.132560
690 1 -51.123800 -38.371280 27.132560
691 1 -51.123800 -36.895460 29.219680
692 1 -49.845700 -39.109190 29.219680
693 1 -51.123800 -41.322910 29.219680
694 1 -47.289510 -36.157550 27.132560
695 1 -47.289510 -39.109190 29.219680
696 1 -48.567610 -36.895460 29.219680
697 1 -48.567610 -44.274550 31.306800
698 1 -51.123800 -39.847100 31.306800
699 1 -49.845700 -42.060820 31.306800
700 1 -51.123800 -44.274550 31.306800
701 1 -51.123800 -42.798730 33.393920
702 1 -47.289510 -42.060820 31.306800
703 1 -47.289510 -37.633370 31.306800
704 1 -49.845700 -37.633370 31.306800
705 1 -48.567610 -39.847100 31.306800
706 1 -48.567610 -38.371280 33.393920
707 1 -47.289510 -40.585010 33.393920
708 1 -49.845700 -40.585010 33.393920
709 1 -48.567610 -42.798730 33.393920
710 1 -48.567610 -41.322910 35.481040
711 1 -47.289510 -43.536641 35.481040
712 1 -49.845700 -43.536641 35.481040
713 1 -49.845700 -36.157550 33.393920
714 1 -51.123800 -38.371280 33.393920
715 1 -51.123800 -36.895460 35.481040
716 1 -49.845700 -39.109190 35.481040
717 1 -51.123800 -41.322910 35.481040
718 1 -47.289510 -36.157550 33.393920
719 1 -47.289510 -39.109190 35.481040
720 1 -48.567610 -36.895460 35.481040
721 1 -48.567610 -44.274550 37.568160
722 1 -51.123800 -39.847100 37.568160
723 1 -49.845700 -42.060820 37.568160
724 1 -51.123800 -44.274550 37.568160
725 1 -51.123800 -42.798730 39.655280
726 1 -47.289510 -42.060820 37.568160
727 1 -47.289510 -37.633370 37.568160
728 1 -49.845700 -37.633370 37.568160
729 1 -48.567610 -39.847100 37.568160
730 1 -48.567610 -38.371280 39.655280
731 1 -47.289510 -40.585010 39.655280
732 1 -49.845700 -40.585010 39.655280
733 1 -48.567610 -42.798730 39.655280
734 1 -48.567610 -41.322910 41.742400
735 1 -47.289510 -43.536641 41.742400
736 1 -49.845700 -43.536641 41.742400
737 1 -49.845700 -36.157550 39.655280
738 1 -51.123800 -38.371280 39.655280
739 1 -51.123800 -36.895460 41.742400
740 1 -49.845700 -39.109190 41.742400
741 1 -51.123800 -41.322910 41.742400
742 1 -47.289510 -36.157550 39.655280
743 1 -47.289510 -39.109190 41.742400
744 1 -48.567610 -36.895460 41.742400
745 1 -48.567610 -44.274550 43.829520
746 1 -51.123800 -39.847100 43.829520
747 1 -49.845700 -42.060820 43.829520
748 1 -51.123800 -44.274550 43.829520
749 1 -51.123800 -42.798730 45.916640
750 1 -47.289510 -42.060820 43.829520
751 1 -47.289510 -37.633370 43.829520
752 1 -49.845700 -37.633370 43.829520
753 1 -48.567610 -39.847100 43.829520
754 1 -48.567610 -38.371280 45.916640
755 1 -47.289510 -40.585010 45.916640
756 1 -49.845700 -40.585010 45.916640
757 1 -48.567610 -42.798730 45.916640
758 1 -48.567610 -41.322910 48.003760
759 1 -47.289510 -43.536641 48.003760
760 1 -49.845700 -43.536641 48.003760
761 1 -49.845700 -36.157550 45.916640
762 1 -51.123800 -38.371280 45.916640
763 1 -51.123800 -36.895460 48.003760
764 1 -49.845700 -39.109190 48.003760
765 1 -51.123800 -41.322910 48.003760
766 1 -47.289510 -36.157550 45.916640
767 1 -47.289510 -39.109190 48.003760
768 1 -48.567610 -36.895460 48.003760
769 1 -48.567610 -35.419640 -50.090880
770 1 -51.123800 -30.992190 -50.090880
771 1 -49.845700 -33.205910 -50.090880
772 1 -51.123800 -35.419640 -50.090880
773 1 -51.123800 -33.943820 -48.003760
774 1 -47.289510 -33.205910 -50.090880
775 1 -47.289510 -28.778460 -50.090880
776 1 -49.845700 -28.778460 -50.090880
777 1 -48.567610 -30.992190 -50.090880
778 1 -48.567610 -29.516370 -48.003760
779 1 -47.289510 -31.730100 -48.003760
780 1 -49.845700 -31.730100 -48.003760
781 1 -48.567610 -33.943820 -48.003760