LAMMPS description

87808 atoms
1 atom types

-50.610000 50.610000 xlo xhi
-50.610000 50.610000 ylo yhi
-50.610000 50.610000 zlo zhi

Masses

1 63.546000

Atoms

1 1 -50.610000 -50.610000 -50.610000
2 1 -48.802500 -48.802500 -50.610000
3 1 -48.802500 -50.610000 -48.802500
4 1 -50.610000 -48.802500 -48.802500
5 1 -50.610000 -50.610000 -46.995000
6 1 -48.802500 -48.802500 -46.995000
7 1 -48.802500 -50.610000 -45.187500
8 1 -50.610000 -48.802500 -45.187500
9 1 -50.610000 -50.610000 -43.380000
10 1 -48.802500 -48.802500 -43.380000
11 1 -48.802500 -50.610000 -41.572500
12 1 -50.610000 -48.802500 -41.572500
13 1 -50.610000 -50.610000 -39.765000
14 1 -48.802500 -48.802500 -39.765000
15 1 -48.802500 -50.610000 -37.957500
16 1 -50.610000 -48.802500 -37.957500
17 1 -50.610000 -50.610000 -36.150000
18 1 -48.802500 -48.802500 -36.150000
19 1 -48.802500 -50.610000 -34.342500
20 1 -50.610000 -48.802500 -34.342500
21 1 -50.610000 -50.610000 -32.535000
22 1 -48.802500 -48.802500 -32.535000
23 1 -48.802500 -50.610000 -30.727500
24 1 -50.610000 -48.802500 -30.727500
25 1 -50.610000 -50.610000 -28.920000
26 1 -48.802500 -48.802500 -28.920000
27 1 -48.802500 -50.610000 -27.112500
28 1 -50.610000 -48.802500 -27.112500
29 1 -50.610000 -50.610000 -25.305000
30 1 -48.802500 -48.802500 -25.305000
31 1 -48.802500 -50.610000 -23.497500
32 1 -50.610000 -48.802500 -23.497500
33 1 -50.610000 -50.610000 -21.690000
34 1 -48.802500 -48.802500 -21.690000
35 1 -48.802500 -50.610000 -19.882500
36 1 -50.610000 -48.802500 -19.882500
37 1 -50.610000 -50.610000 -18.075000
38 1 -48.802500 -48.802500 -18.075000
39 1 -48.802500 -50.610000 -16.267500
40 1 -50.610000 -48.802500 -16.267500
41 1 -50.610000 -50.610000 -14.460000
42 1 -48.802500 -48.802500 -14.460000
43 1 -48.802500 -50.610000 -12.652500
44 1 -50.610000 -48.802500 -12.652500
45 1 -50.610000 -50.610000 -10.845000
46 1 -48.802500 -48.802500 -10.845000
47 1 -48.802500 -50.610000 -9.037500
48 1 -50.610000 -48.802500 -9.037500
49 1 -50.610000 -50.610000 -7.230000
50 1 -48.802500 -48.802500 -7.230000
51 1 -48.802500 -50.610000 -5.422500
52 1 -50.610000 -48.802500 -5.422500
53 1 -50.610000 -50.610000 -3.615000
54 1 -48.802500 -48.802500 -3.615000
55 1 -48.802500 -50.610000 -1.807500
56 1 -50.610000 -48.802500 -1.807500
57 1 -50.610000 -50.610000 0.000000
58 1 -48.802500 -48.802500 0.000000
59 1 -48.802500 -50.610000 1.807500
60 1 -50.610000 -48.802500 1.807500
61 1 -50.610000 -50.610000 3.615000
62 1 -48.802500 -48.802500 3.615000
63 1 -48.802500 -50.610000 5.422500
64 1 -50.610000 -48.802500 5.422500
65 1 -50.610000 -50.610000 7.230000
66 1 -48.802500 -48.802500 7.230000
67 1 -48.802500 -50.610000 9.037500
68 1 -50.610000 -48.802500 9.037500
69 1 -50.610000 -50.610000 10.845000
70 1 -48.802500 -48.802500 10.845000
71 1 -48.802500 -50.610000 12.652500
72 1 -50.610000 -48.802500 12.652500
73 1 -50.610000 -50.610000 14.460000
74 1 -48.802500 -48.802500 14.460000
75 1 -48.802500 -50.610000 16.267500
76 1 -50.610000 -48.802500 16.267500
77 1 -50.610000 -50.610000 18.075000
78 1 -48.802500 -48.802500 18.075000
79 1 -48.802500 -50.610000 19.882500
80 1 -50.610000 -48.802500 19.882500
81 1 -50.610000 -50.610000 21.690000
82 1 -48.802500 -48.802500 21.690000
83 1 -48.802500 -50.610000 23.497500
84 1 -50.610000 -48.802500 23.497500
85 1 -50.610000 -50.610000 25.305000
86 1 -48.802500 -48.802500 25.305000
87 1 -48.802500 -50.610000 27.112500
88 1 -50.610000 -48.802500 27.112500
89 1 -50.610000 -50.610000 28.920000
90 1 -48.802500 -48.802500 28.920000
91 1 -48.802500 -50.610000 30.727500
92 1 -50.610000 -48.802500 30.727500
93 1 -50.610000 -50.610000 32.535000
94 1 -48.802500 -48.802500 32.535000
95 1 -48.802500 -50.610000 34.342500
96 1 -50.610000 -48.802500 34.342500
97 1 -50.610000 -50.610000 36.150000
98 1 -48.802500 -48.802500 36.150000
99 1 -48.802500 -50.610000 37.957500
100 1 -50.610000 -48.802500 37.957500
101 1 -50.610000 -50.610000 39.765000
102 1 -48.802500 -48.802500 39.765000
103 1 -48.802500 -50.610000 41.572500
104 1 -50.610000 -48.802500 41.572500
105 1 -50.610000 -50.610000 43.380000
106 1 -48.802500 -48.802500 43.380000
107 1 -48.802500 -50.610000 45.187500
108 1 -50.610000 -48.802500 45.187500
109 1 -50.610000 -50.610000 46.995000
110 1 -48.802500 -48.802500 46.995000
111 1 -48.802500 -50.610000 48.802500
112 1 -50.610000 -48.802500 48.802500
113 1 -50.610000 -46.995000 -50.610000
114 1 -48.802500 -45.187500 -50.610000
115 1 -48.802500 -46.995000 -48.802500
116 1 -50.610000 -45.187500 -48.802500
117 1 -50.610000 -46.995000 -46.995000
118 1 -48.802500 -45.187500 -46.995000
119 1 -48.802500 -46.995000 -45.187500
120 1 -50.610000 -45.187500 -45.187500
121 1 -50.610000 -46.995000 -43.380000
122 1 -48.802500 -45.187500 -43.380000
123 1 -48.802500 -46.995000 -41.572500
124 1 -50.610000 -45.187500 -41.572500
125 1 -50.610000 -46.995000 -39.765000
126 1 -48.802500 -45.187500 -39.765000
127 1 -48.802500 -46.995000 -37.957500
128 1 -50.610000 -45.187500 -37.957500
129 1 -50.610000 -46.995000 -36.150000
130 1 -48.802500 -45.187500 -36.150000
131 1 -48.802500 -46.995000 -34.342500
132 1 -50.610000 -45.187500 -34.342500
133 1 -50.610000 -46.995000 -32.535000
134 1 -48.802500 -45.187500 -32.535000
135 1 -48.802500 -46.995000 -30.727500
136 1 -50.610000 -45.187500 -30.727500
137 1 -50.610000 -46.995000 -28.920000
138 1 -48.802500 -45.187500 -28.920000
139 1 -48.802500 -46.995000 -27.112500
140 1 -50.610000 -45.187500 -27.112500
141 1 -50.610000 -46.995000 -25.305000
142 1 -48.802500 -45.187500 -25.305000
143 1 -48.802500 -46.995000 -23.497500
144 1 -50.610000 -45.187500 -23.497500
145 1 -50.610000 -46.995000 -21.690000
146 1 -48.802500 -45.187500 -21.690000
147 1 -48.802500 -46.995000 -19.882500
148 1 -50.610000 -45.187500 -19.882500
149 1 -50.610000 -46.995000 -18.075000
150 1 -48.802500 -45.187500 -18.075000
151 1 -48.802500 -46.995000 -16.267500
152 1 -50.610000 -45.187500 -16.267500
153 1 -50.610000 -46.995000 -14.460000
154 1 -48.802500 -45.187500 -14.460000
155 1 -48.802500 -46.995000 -12.652500
156 1 -50.610000 -45.187500 -12.652500
157 1 -50.610000 -46.995000 -10.845000
158 1 -48.802500 -45.187500 -10.845000
159 1 -48.802500 -46.995000 -9.037500
160 1 -50.610000 -45.187500 -9.037500
161 1 -50.610000 -46.995000 -7.230000
162 1 -48.802500 -45.187500 -7.230000
163 1 -48.802500 -46.995000 -5.422500
164 1 -50.610000 -45.187500 -5.422500
165 1 -50.610000 -46.995000 -3.615000
166 1 -48.802500 -45.187500 -3.615000
167 1 -48.802500 -46.995000 -1.807500
168 1 -50.610000 -45.187500 -1.807500
169 1 -50.610000 -46.995000 0.000000
170 1 -48.802500 -45.187500 0.000000
171 1 -48.802500 -46.995000 1.807500
172 1 -50.610000 -45.187500 1.807500
173 1 -50.610000 -46.995000 3.615000
174 1 -48.802500 -45.187500 3.615000
175 1 -48.802500 -46.995000 5.422500
176 1 -50.610000 -45.187500 5.422500
177 1 -50.610000 -46.995000 7.230000
178 1 -48.802500 -45.187500 7.230000
179 1 -48.802500 -46.995000 9.037500
180 1 -50.610000 -45.187500 9.037500
181 1 -50.610000 -46.995000 10.845000
182 1 -48.802500 -45.187500 10.845000
183 1 -48.802500 -46.995000 12.652500
184 1 -50.610000 -45.187500 12.652500
185 1 -50.610000 -46.995000 14.460000
186 1 -48.802500 -45.187500 14.460000
187 1 -48.802500 -46.995000 16.267500
188 1 -50.610000 -45.187500 16.267500
189 1 -50.610000 -46.995000 18.075000
190 1 -48.802500 -45.187500 18.075000
191 1 -48.802500 -46.995000 19.882500
192 1 -50.610000 -45.187500 19.882500
193 1 -50.610000 -46.995000 21.690000
194 1 -48.802500 -45.187500 21.690000
195 1 -48.802500 -46.995000 23.497500
196 1 -50.610000 -45.187500 23.497500
197 1 -50.610000 -46.995000 25.305000
198 1 -48.802500 -45.187500 25.305000
199 1 -48.802500 -46.995000 27.112500
200 1 -50.610000 -45.187500 27.112500
201 1 -50.610000 -46.995000 28.920000
202 1 -48.802500 -45.187500 28.920000
203 1 -48.802500 -46.995000 30.727500
204 1 -50.610000 -45.187500 30.727500
205 1 -50.610000 -46.995000 32.535000
206 1 -48.802500 -45.187500 32.535000
207 1 -48.802500 -46.995000 34.342500
208 1 -50.610000 -45.187500 34.342500
209 1 -50.610000 -46.995000 36.150000
210 1 -48.802500 -45.187500 36.150000
211 1 -48.802500 -46.995000 37.957500
212 1 -50.610000 -45.187500 37.957500
213 1 -50.610000 -46.995000 39.765000
214 1 -48.802500 -45.187500 39.765000
215 1 -48.802500 -46.995000 41.572500
216 1 -50.610000 -45.187500 41.572500
217 1 -50.610000 -46.995000 43.380000
218 1 -48.802500 -45.187500 43.380000
219 1 -48.802500 -46.995000 45.187500
220 1 -50.610000 -45.187500 45.187500
221 1 -50.610000 -46.995000 46.995000
222 1 -48.802500 -45.187500 46.995000
223 1 -48.802500 -46.995000 48.802500
224 1 -50.610000 -45.187500 48.802500
225 1 -50.610000 -43.380000 -50.610000
226 1 -48.802500 -41.572500 -50.610000
227 1 -48.802500 -43.380000 -48.802500
228 1 -50.610000 -41.572500 -48.802500
229 1 -50.610000 -43.380000 -46.995000
230 1 -48.802500 -41.572500 -46.995000
231 1 -48.802500 -43.380000 -45.187500
232 1 -50.610000 -41.572500 -45.187500
233 1 -50.610000 -43.380000 -43.380000
234 1 -48.802500 -41.572500 -43.380000
235 1 -48.802500 -43.380000 -41.572500
236 1 -50.610000 -41.572500 -41.572500
237 1 -50.610000 -43.380000 -39.765000
238 1 -48.802500 -41.572500 -39.765000
239 1 -48.802500 -43.380000 -37.957500
240 1 -50.610000 -41.572500 -37.957500
241 1 -50.610000 -43.380000 -36.150000
242 1 -48.802500 -41.572500 -36.150000
243 1 -48.802500 -43.380000 -34.342500
244 1 -50.610000 -41.572500 -34.342500
245 1 -50.610000 -43.380000 -32.535000
246 1 -48.802500 -41.572500 -32.535000
247 1 -48.802500 -43.380000 -30.727500
248 1 -50.610000 -41.572500 -30.727500
249 1 -50.610000 -43.380000 -28.920000
250 1 -48.802500 -41.572500 -28.920000
251 1 -48.802500 -43.380000 -27.112500
252 1 -50.610000 -41.572500 -27.112500
253 1 -50.610000 -43.380000 -25.305000
254 1 -48.802500 -41.572500 -25.305000
255 1 -48.802500 -43.380000 -23.497500
256 1 -50.610000 -41.572500 -23.497500
257 1 -50.610000 -43.380000 -21.690000
258 1 -48.802500 -41.572500 -21.690000
259 1 -48.802500 -43.380000 -19.882500
260 1 -50.610000 -41.572500 -19.882500
261 1 -50.610000 -43.380000 -18.075000
262 1 -48.802500 -41.572500 -18.075000
263 1 -48.802500 -43.380000 -16.267500
264 1 -50.610000 -41.572500 -16.267500
265 1 -50.610000 -43.380000 -14.460000
266 1 -48.802500 -41.572500 -14.460000
267 1 -48.802500 -43.380000 -12.652500
268 1 -50.610000 -41.572500 -12.652500
269 1 -50.610000 -43.380000 -10.845000
270 1 -48.802500 -41.572500 -10.845000
271 1 -48.802500 -43.380000 -9.037500
272 1 -50.610000 -41.572500 -9.037500
273 1 -50.610000 -43.380000 -7.230000
274 1 -48.802500 -41.572500 -7.230000
275 1 -48.802500 -43.380000 -5.422500
276 1 -50.610000 -41.572500 -5.422500
277 1 -50.610000 -43.380000 -3.615000
278 1 -48.802500 -41.572500 -3.615000
279 1 -48.802500 -43.380000 -1.807500
280 1 -50.610000 -41.572500 -1.807500
281 1 -50.610000 -43.380000 0.000000
282 1 -48.802500 -41.572500 0.000000
283 1 -48.802500 -43.380000 1.807500
284 1 -50.610000 -41.572500 1.807500
285 1 -50.610000 -43.380000 3.615000
286 1 -48.802500 -41.572500 3.615000
287 1 -48.802500 -43.380000 5.422500
288 1 -50.610000 -41.572500 5.422500
289 1 -50.610000 -43.380000 7.230000
290 1 -48.802500 -41.572500 7.230000
291 1 -48.802500 -43.380000 9.037500
292 1 -50.610000 -41.572500 9.037500
293 1 -50.610000 -43.380000 10.845000
294 1 -48.802500 -41.572500 10.845000
295 1 -48.802500 -43.380000 12.652500
296 1 -50.610000 -41.572500 12.652500
297 1 -50.610000 -43.380000 14.460000
298 1 -48.802500 -41.572500 14.460000
299 1 -48.802500 -43.380000 16.267500
300 1 -50.610000 -41.572500 16.267500
301 1 -50.610000 -43.380000 18.075000
302 1 -48.802500 -41.572500 18.075000
303 1 -48.802500 -43.380000 19.882500
304 1 -50.610000 -41.572500 19.882500
305 1 -50.610000 -43.380000 21.690000
306 1 -48.802500 -41.572500 21.690000
307 1 -48.802500 -43.380000 23.497500
308 1 -50.610000 -41.572500 23.497500
309 1 -50.610000 -43.380000 25.305000
310 1 -48.802500 -41.572500 25.305000
311 1 -48.802500 -43.380000 27.112500
312 1 -50.610000 -41.572500 27.112500
313 1 -50.610000 -43.380000 28.920000
314 1 -48.802500 -41.572500 28.920000
315 1 -48.802500 -43.380000 30.727500
316 1 -50.610000 -41.572500 30.727500
317 1 -50.610000 -43.380000 32.535000
318 1 -48.802500 -41.572500 32.535000
319 1 -48.802500 -43.380000 34.342500
320 1 -50.610000 -41.572500 34.342500
321 1 -50.610000 -43.380000 36.150000
322 1 -48.802500 -41.572500 36.150000
323 1 -48.802500 -43.380000 37.957500
324 1 -50.610000 -41.572500 37.957500
325 1 -50.610000 -43.380000 39.765000
326 1 -48.802500 -41.572500 39.765000
327 1 -48.802500 -43.380000 41.572500
328 1 -50.610000 -41.572500 41.572500
329 1 -50.610000 -43.380000 43.380000
330 1 -48.802500 -41.572500 43.380000
331 1 -48.802500 -43.380000 45.187500
332 1 -50.610000 -41.572500 45.187500
333 1 -50.610000 -43.380000 46.995000
334 1 -48.802500 -41.572500 46.995000
335 1 -48.802500 -43.380000 48.802500
336 1 -50.610000 -41.572500 48.802500
337 1 -50.610000 -39.765000 -50.610000
338 1 -48.802500 -37.957500 -50.610000
339 1 -48.802500 -39.765000 -48.802500
340 1 -50.610000 -37.957500 -48.802500
341 1 -50.610000 -39.765000 -46.995000
342 1 -48.802500 -37.957500 -46.995000
343 1 -48.802500 -39.765000 -45.187500
344 1 -50.610000 -37.957500 -45.187500
345 1 -50.610000 -39.765000 -43.380000
346 1 -48.802500 -37.957500 -43.380000
347 1 -48.802500 -39.765000 -41.572500
348 1 -50.610000 -37.957500 -41.572500
349 1 -50.610000 -39.765000 -39.765000
350 1 -48.802500 -37.957500 -39.765000
351 1 -48.802500 -39.765000 -37.957500
352 1 -50.610000 -37.957500 -37.957500
353 1 -50.610000 -39.765000 -36.150000
354 1 -48.802500 -37.957500 -36.150000
355 1 -48.802500 -39.765000 -34.342500
356 1 -50.610000 -37.957500 -34.342500
357 1 -50.610000 -39.765000 -32.535000
358 1 -48.802500 -37.957500 -32.535000
359 1 -48.802500 -39.765000 -30.727500
360 1 -50.610000 -37.957500 -30.727500
361 1 -50.610000 -39.765000 -28.920000
362 1 -48.802500 -37.957500 -28.920000
363 1 -48.802500 -39.765000 -27.112500
364 1 -50.610000 -37.957500 -27.112500
365 1 -50.610000 -39.765000 -25.305000
366 1 -48.802500 -37.957500 -25.305000
367 1 -48.802500 -39.765000 -23.497500
368 1 -50.610000 -37.957500 -23.497500
369 1 -50.610000 -39.765000 -21.690000
370 1 -48.802500 -37.957500 -21.690000
371 1 -48.802500 -39.765000 -19.882500
372 1 -50.610000 -37.957500 -19.882500
373 1 -50.610000 -39.765000 -18.075000
374 1 -48.802500 -37.957500 -18.075000
375 1 -48.802500 -39.765000 -16.267500
376 1 -50.610000 -37.957500 -16.267500
377 1 -50.610000 -39.765000 -14.460000
378 1 -48.802500 -37.957500 -14.460000
379 1 -48.802500 -39.765000 -12.652500
380 1 -50.610000 -37.957500 -12.652500
381 1 -50.610000 -39.765000 -10.845000
382 1 -48.802500 -37.957500 -10.845000
383 1 -48.802500 -39.765000 -9.037500
384 1 -50.610000 -37.957500 -9.037500
385 1 -50.610000 -39.765000 -7.230000
386 1 -48.802500 -37.957500 -7.230000
387 1 -48.802500 -39.765000 -5.422500
388 1 -50.610000 -37.957500 -5.422500
389 1 -50.610000 -39.765000 -3.615000
390 1 -48.802500 -37.957500 -3.615000
391 1 -48.802500 -39.765000 -1.807500
392 1 -50.610000 -37.957500 -1.807500
393 1 -50.610000 -39.765000 0.000000
394 1 -48.802500 -37.957500 0.000000
395 1 -48.802500 -39.765000 1.807500
396 1 -50.610000 -37.957500 1.807500
397 1 -50.610000 -39.765000 3.615000
398 1 -48.802500 -37.957500 3.615000
399 1 -48.802500 -39.765000 5.422500
400 1 -50.610000 -37.957500 5.422500
401 1 -50.610000 -39.765000 7.230000
402 1 -48.802500 -37.957500 7.230000
403 1 -48.802500 -39.765000 9.037500
404 1 -50.610000 -37.957500 9.037500
405 1 -50.610000 -39.765000 10.845000
406 1 -48.802500 -37.957500 10.845000
407 1 -48.802500 -39.765000 12.652500
408 1 -50.610000 -37.957500 12.652500
409 1 -50.610000 -39.765000 14.460000
410 1 -48.802500 -37.957500 14.460000
411 1 -48.802500 -39.765000 16.267500
412 1 -50.610000 -37.957500 16.267500
413 1 -50.610000 -39.765000 18.075000
414 1 -48.802500 -37.957500 18.075000
415 1 -48.802500 -39.765000 19.882500
416 1 -50.610000 -37.957500 19.882500
417 1 -50.610000 -39.765000 21.690000
418 1 -48.802500 -37.957500 21.690000
419 1 -48.802500 -39.765000 23.497500
420 1 -50.610000 -37.957500 23.497500
421 1 -50.610000 -39.765000 25.305000
422 1 -48.802500 -37.957500 25.305000
423 1 -48.802500 -39.765000 27.112500
424 1 -50.610000 -37.957500 27.112500
425 1 -50.610000 -39.765000 28.920000
426 1 -48.802500 -37.957500 28.920000
427 1 -48.802500 -39.765000 30.727500
428 1 -50.610000 -37.957500 30.727500
429 1 -50.610000 -39.765000 32.535000
430 1 -48.802500 -37.957500 32.535000
431 1 -48.802500 -39.765000 34.342500
432 1 -50.610000 -37.957500 34.342500
433 1 -50.610000 -39.765000 36.150000
434 1 -48.802500 -37.957500 36.150000
435 1 -48.802500 -39.765000 37.957500
436 1 -50.610000 -37.957500 37.957500
437 1 -50.610000 -39.765000 39.765000
438 1 -48.802500 -37.957500 39.765000
439 1 -48.802500 -39.765000 41.572500
440 1 -50.610000 -37.957500 41.572500
441 1 -50.610000 -39.765000 43.380000
442 1 -48.802500 -37.957500 43.380000
443 1 -48.802500 -39.765000 45.187500
444 1 -50.610000 -37.957500 45.187500
445 1 -50.610000 -39.765000 46.995000
446 1 -48.802500 -37.957500 46.995000
447 1 -48.802500 -39.765000 48.802500
448 1 -50.610000 -37.957500 48.802500
449 1 -50.610000 -36.150000 -50.610000
450 1 -48.802500 -34.342500 -50.610000
451 1 -48.802500 -36.150000 -48.802500
452 1 -50.610000 -34.342500 -48.802500
453 1 -50.610000 -36.150000 -46.995000
454 1 -48.802500 -34.342500 -46.995000
455 1 -48.802500 -36.150000 -45.187500
456 1 -50.610000 -34.342500 -45.187500
457 1 -50.610000 -36.150000 -43.380000
458 1 -48.802500 -34.342500 -43.380000
459 1 -48.802500 -36.150000 -41.572500
460 1 -50.610000 -34.342500 -41.572500
461 1 -50.610000 -36.150000 -39.765000
462 1 -48.802500 -34.342500 -39.765000
463 1 -48.802500 -36.150000 -37.957500
464 1 -50.610000 -34.342500 -37.957500
465 1 -50.610000 -36.150000 -36.150000
466 1 -48.802500 -34.342500 -36.150000
467 1 -48.802500 -36.150000 -34.342500
468 1 -50.610000 -34.342500 -34.342500
469 1 -50.610000 -36.150000 -32.535000
470 1 -48.802500 -34.342500 -32.535000
471 1 -48.802500 -36.150000 -30.727500
472 1 -50.610000 -34.342500 -30.727500
473 1 -50.610000 -36.150000 -28.920000
474 1 -48.802500 -34.342500 -28.920000
475 1 -48.802500 -36.150000 -27.112500
476 1 -50.610000 -34.342500 -27.112500
477 1 -50.610000 -36.150000 -25.305000
478 1 -48.802500 -34.342500 -25.305000
479 1 -48.802500 -36.150000 -23.497500
480 1 -50.610000 -34.342500 -23.497500
481 1 -50.610000 -36.150000 -21.690000
482 1 -48.802500 -34.342500 -21.690000
483 1 -48.802500 -36.150000 -19.882500
484 1 -50.610000 -34.342500 -19.882500
485 1 -50.610000 -36.150000 -18.075000
486 1 -48.802500 -34.342500 -18.075000
487 1 -48.802500 -36.150000 -16.267500
488 1 -50.610000 -34.342500 -16.267500
489 1 -50.610000 -36.150000 -14.460000
490 1 -48.802500 -34.342500 -14.460000
491 1 -48.802500 -36.150000 -12.652500
492 1 -50.610000 -34.342500 -12.652500
493 1 -50.610000 -36.150000 -10.845000
494 1 -48.802500 -34.342500 -10.845000
495 1 -48.802500 -36.150000 -9.037500
496 1 -50.610000 -34.342500 -9.037500
497 1 -50.610000 -36.150000 -7.230000
498 1 -48.802500 -34.342500 -7.230000
499 1 -48.802500 -36.150000 -5.422500
500 1 -50.610000 -34.342500 -5.422500
501 1 -50.610000 -36.150000 -3.615000
502 1 -48.802500 -34.342500 -3.615000
503 1 -48.802500 -36.150000 -1.807500
504 1 -50.610000 -34.342500 -1.807500
505 1 -50.610000 -36.150000 0.000000
506 1 -48.802500 -34.342500 0.000000
507 1 -48.802500 -36.150000 1.807500
508 1 -50.610000 -34.342500 1.807500
509 1 -50.610000 -36.150000 3.615000
510 1 -48.802500 -34.342500 3.615000
511 1 -48.802500 -36.150000 5.422500
512 1 -50.610000 -34.342500 5.422500
513 1 -50.610000 -36.150000 7.230000
514 1 -48.802500 -34.342500 7.230000
515 1 -48.802500 -36.150000 9.037500
516 1 -50.610000 -34.342500 9.037500
517 1 -50.610000 -36.150000 10.845000
518 1 -48.802500 -34.342500 10.845000
519 1 -48.802500 -36.150000 12.652500
520 1 -50.610000 -34.342500 12.652500
521 1 -50.610000 -36.150000 14.460000
522 1 -48.802500 -34.342500 14.460000
523 1 -48.802500 -36.150000 16.267500
524 1 -50.610000 -34.342500 16.267500
525 1 -50.610000 -36.150000 18.075000
526 1 -48.802500 -34.342500 18.075000
527 1 -48.802500 -36.150000 19.882500
528 1 -50.610000 -34.342500 19.882500
529 1 -50.610000 -36.150000 21.690000
530 1 -48.802500 -34.342500 21.690000
531 1 -48.802500 -36.150000 23.497500
532 1 -50.610000 -34.342500 23.497500
533 1 -50.610000 -36.150000 25.305000
534 1 -48.802500 -34.342500 25.305000
535 1 -48.802500 -36.150000 27.112500
536 1 -50.610000 -34.342500 27.112500
537 1 -50.610000 -36.150000 28.920000
538 1 -48.802500 -34.342500 28.920000
539 1 -48.802500 -36.150000 30.727500
540 1 -50.610000 -34.342500 30.727500
541 1 -50.610000 -36.150000 32.535000
542 1 -48.802500 -34.342500 32.535000
543 1 -48.802500 -36.150000 34.342500
544 1 -50.610000 -34.342500 34.342500
545 1 -50.610000 -36.150000 36.150000
546 1 -48.802500 -34.342500 36.150000
547 1 -48.802500 -36.150000 37.957500
548 1 -50.610000 -34.342500 37.957500
549 1 -50.610000 -36.150000 39.765000
550 1 -48.802500 -34.342500 39.765000
551 1 -48.802500 -36.150000 41.572500
552 1 -50.610000 -34.342500 41.572500
553 1 -50.610000 -36.150000 43.380000
554 1 -48.802500 -34.342500 43.380000
555 1 -48.802500 -36.150000 45.187500
556 1 -50.610000 -34.342500 45.187500
557 1 -50.610000 -36.150000 46.995000
558 1 -48.802500 -34.342500 46.995000
559 1 -48.802500 -36.150000 48.802500
560 1 -50.610000 -34.342500 48.802500
561 1 -50.610000 -32.535000 -50.610000
562 1 -48.802500 -30.727500 -50.610000
563 1 -48.802500 -32.535000 -48.802500
564 1 -50.610000 -30.727500 -48.802500
565 1 -50.610000 -32.535000 -46.995000
566 1 -48.802500 -30.727500 -46.995000
567 1 -48.802500 -32.535000 -45.187500
568 1 -50.610000 -30.727500 -45.187500
569 1 -50.610000 -32.535000 -43.380000
570 1 -48.802500 -30.727500 -43.380000
571 1 -48.802500 -32.535000 -41.572500
572 1 -50.610000 -30.727500 -41.572500
573 1 -50.610000 -32.535000 -39.765000
574 1 -48.802500 -30.727500 -39.765000
575 1 -48.802500 -32.535000 -37.957500
576 1 -50.610000 -30.727500 -37.957500
577 1 -50.610000 -32.535000 -36.150000
578 1 -48.802500 -30.727500 -36.150000
579 1 -48.802500 -32.535000 -34.342500
580 1 -50.610000 -30.727500 -34.342500
581 1 -50.610000 -32.535000 -32.535000
582 1 -48.802500 -30.727500 -32.535000
583 1 -48.802500 -32.535000 -30.727500
584 1 -50.610000 -30.727500 -30.727500
585 1 -50.610000 -32.535000 -28.920000
586 1 -48.802500 -30.727500 -28.920000
587 1 -48.802500 -32.535000 -27.112500
588 1 -50.610000 -30.727500 -27.112500
589 1 -50.610000 -32.535000 -25.305000
590 1 -48.802500 -30.727500 -25.305000
591 1 -48.802500 -32.535000 -23.497500
592 1 -50.610000 -30.727500 -23.497500
593 1 -50.610000 -32.535000 -21.690000
594 1 -48.802500 -30.727500 -21.690000
595 1 -48.802500 -32.535000 -19.882500
596 1 -50.610000 -30.727500 -19.882500
597 1 -50.610000 -32.535000 -18.075000
598 1 -48.802500 -30.727500 -18.075000
599 1 -48.802500 -32.535000 -16.267500
600 1 -50.610000 -30.727500 -16.267500
601 1 -50.610000 -32.535000 -14.460000
602 1 -48.802500 -30.727500 -14.460000
603 1 -48.802500 -32.535000 -12.652500
604 1 -50.610000 -30.727500 -12.652500
605 1 -50.610000 -32.535000 -10.845000
606 1 -48.802500 -30.727500 -10.845000
607 1 -48.802500 -32.535000 -9.037500
608 1 -50.610000 -30.727500 -9.037500
609 1 -50.610000 -32.535000 -7.230000
610 1 -48.802500 -30.727500 -7.230000
611 1 -48.802500 -32.535000 -5.422500
612 1 -50.610000 -30.727500 -5.422500
613 1 -50.610000 -32.535000 -3.615000
614 1 -48.802500 -30.727500 -3.615000
615 1 -48.802500 -32.535000 -1.807500
616 1 -50.610000 -30.727500 -1.807500
617 1 -50.610000 -32.535000 0.000000
618 1 -48.802500 -30.727500 0.000000
619 1 -48.802500 -32.535000 1.807500
620 1 -50.610000 -30.727500 1.807500
621 1 -50.610000 -32.535000 3.615000
622 1 -48.802500 -30.727500 3.615000
623 1 -48.802500 -32.535000 5.422500
624 1 -50.610000 -30.727500 5.422500
625 1 -50.610000 -32.535000 7.230000
626 1 -48.802500 -30.727500 7.230000
627 1 -48.802500 -32.535000 9.037500
628 1 -50.610000 -30.727500 9.037500
629 1 -50.610000 -32.535000 10.845000
630 1 -48.802500 -30.727500 10.845000
631 1 -48.802500 -32.535000 12.652500
632 1 -50.610000 -30.727500 12.652500
633 1 -50.610000 -32.535000 14.460000
634 1 -48.802500 -30.727500 14.460000
635 1 -48.802500 -32.535000 16.267500
636 1 -50.610000 -30.727500 16.267500
637 1 -50.610000 -32.535000 18.075000
638 1 -48.802500 -30.727500 18.075000
639 1 -48.802500 -32.535000 19.882500
640 1 -50.610000 -30.727500 19.882500
641 1 -50.610000 -32.535000 21.690000
642 1 -48.802500 -30.727500 21.690000
643 1 -48.802500 -32.535000 23.497500
644 1 -50.610000 -30.727500 23.497500
645 1 -50.610000 -32.535000 25.305000
646 1 -48.802500 -30.727500 25.305000
647 1 -48.802500 -32.535000 27.112500
648 1 -50.610000 -30.727500 27.112500
649 1 -50.610000 -32.535000 28.920000
650 1 -48.802500 -30.727500 28.920000
651 1 -48.802500 -32.535000 30.727500
652 1 -50.610000 -30.727500 30.727500
653 1 -50.610000 -32.535000 32.535000
654 1 -48.802500 -30.727500 32.535000
655 1 -48.802500 -32.535000 34.342500
656 1 -50.610000 -30.727500 34.342500
657 1 -50.610000 -32.535000 36.150000
658 1 -48.802500 -30.727500 36.150000
659 1 -48.802500 -32.535000 37.957500
660 1 -50.610000 -30.727500 37.957500
661 1 -50.610000 -32.535000 39.765000
662 1 -48.802500 -30.727500 39.765000
663 1 -48.802500 -32.535000 41.572500
664 1 -50.610000 -30.727500 41.572500
665 1 -50.610000 -32.535000 43.380000
666 1 -48.802500 -30.727500 43.380000
667 1 -48.802500 -32.535000 45.187500
668 1 -50.610000 -30.727500 45.187500
669 1 -50.610000 -32.535000 46.995000
670 1 -48.802500 -30.727500 46.995000
671 1 -48.802500 -32.535000 48.802500
672 1 -50.610000 -30.727500 48.802500
673 1 -50.610000 -28.920000 -50.610000
674 1 -48.802500 -27.112500 -50.610000
675 1 -48.802500 -28.920000 -48.802500
676 1 -50.610000 -27.112500 -48.802500
677 1 -50.610000 -28.920000 -46.995000
678 1 -48.802500 -27.112500 -46.995000
679 1 -48.802500 -28.920000 -45.187500
680 1 -50.610000 -27.112500 -45.187500
681 1 -50.610000 -28.920000 -43.380000
682 1 -48.802500 -27.112500 -43.380000
683 1 -48.802500 -28.920000 -41.572500
684 1 -50.610000 -27.112500 -41.572500
685 1 -50.610000 -28.920000 -39.765000
686 1 -48.802500 -27.112500 -39.765000
687 1 -48.802500 -28.920000 -37.957500
688 1 -50.610000 -27.112500 -37.957500
689 1 -50.610000 -28.920000 -36.150000
690 1 -48.802500 -27.112500 -36.150000
691 1 -48.802500 -28.920000 -34.342500
692 1 -50.610000 -27.112500 -34.342500
693 1 -50.610000 -28.920000 -32.535000
694 1 -48.802500 -27.112500 -32.535000
695 1 -48.802500 -28.920000 -30.727500
696 1 -50.610000 -27.112500 -30.727500
697 1 -50.610000 -28.920000 -28.920000
698 1 -48.802500 -27.112500 -28.920000
699 1 -48.802500 -28.920000 -27.112500
700 1 -50.610000 -27.112500 -27.112500
701 1 -50.610000 -28.920000 -25.305000
702 1 -48.802500 -27.112500 -25.305000
703 1 -48.802500 -28.920000 -23.497500
704 1 -50.610000 -27.112500 -23.497500
705 1 -50.610000 -28.920000 -21.690000
706 1 -48.802500 -27.112500 -21.690000
707 1 -48.802500 -28.920000 -19.882500
708 1 -50.610000 -27.112500 -19.882500
709 1 -50.610000 -28.920000 -18.075000
710 1 -48.802500 -27.112500 -18.075000
711 1 -48.802500 -28.920000 -16.267500
712 1 -50.610000 -27.112500 -16.267500
713 1 -50.610000 -28.920000 -14.460000
714 1 -48.802500 -27.112500 -14.460000
715 1 -48.802500 -28.920000 -12.652500
716 1 -50.610000 -27.112500 -12.652500
717 1 -50.610000 -28.920000 -10.845000
718 1 -48.802500 -27.112500 -10.845000
719 1 -48.802500 -28.920000 -9.037500
720 1 -50.610000 -27.112500 -9.037500
721 1 -50.610000 -28.920000 -7.230000
722 1 -48.802500 -27.112500 -7.230000
723 1 -48.802500 -28.920000 -5.422500
724 1 -50.610000 -27.112500 -5.422500
725 1 -50.610000 -28.920000 -3.615000
726 1 -48.802500 -27.112500 -3.615000
727 1 -48.802500 -28.920000 -1.807500
728 1 -50.610000 -27.112500 -1.807500
729 1 -50.610000 -28.920000 0.000000
730 1 -48.802500 -27.112500 0.000000
731 1 -48.802500 -28.920000 1.807500
732 1 -50.610000 -27.112500 1.807500
733 1 -50.610000 -28.920000 3.615000
734 1 -48.802500 -27.112500 3.615000
735 1 -48.802500 -28.920000 5.422500
736 1 -50.610000 -27.112500 5.422500
737 1 -50.610000 -28.920000 7.230000
738 1 -48.802500 -27.112500 7.230000
739 1 -48.802500 -28.920000 9.037500
740 1 -50.610000 -27.112500 9.037500
741 1 -50.610000 -28.920000 10.845000
742 1 -48.802500 -27.112500 10.845000
743 1 -48.802500 -28.920000 12.652500
744 1 -50.610000 -27.112500 12.652500
745 1 -50.610000 -28.920000 14.460000
746 1 -48.802500 -27.112500 14.460000
747 1 -48.802500 -28.920000 16.267500
748 1 -50.610000 -27.112500 16.267500
749 1 -50.610000 -28.920000 18.075000
750 1 -48.802500 -27.112500 18.075000
751 1 -48.802500 -28.920000 19.882500
752 1 -50.610000 -27.112500 19.882500
753 1 -50.610000 -28.920000 21.690000
754 1 -48.802500 -27.112500 21.690000
755 1 -48.802500 -28.920000 23.497500
756 1 -50.610000 -27.112500 23.497500
757 1 -50.610000 -28.920000 25.305000
758 1 -48.802500 -27.112500 25.305000
759 1 -48.802500 -28.920000 27.112500
760 1 -50.610000 -27.112500 27.112500
761 1 -50.610000 -28.920000 28.920000
762 1 -48.802500 -27.112500 28.920000
763 1 -48.802500 -28.920000 30.727500
764 1 -50.610000 -27.112500 30.727500
765 1 -50.610000 -28.920000 32.535000
766 1 -48.802500 -27.112500 32.535000
767 1 -48.802500 -28.920000 34.342500
768 1 -50.610000 -27.112500 34.342500
769 1 -50.610000 -28.920000 36.150000
770 1 -48.802500 -27.112500 36.150000
771 1 -48.802500 -28.920000 37.957500
772 1 -50.610000 -27.112500 37.957500
773 1 -50.610000 -28.920000 39.765000
774 1 -48.802500 -27.112500 39.765000
775 1 -48.802500 -28.920000 41.572500
776 1 -50.610000 -27.112500 41.572500
777 1 -50.610000 -28.920000 43.380000
778 1 -48.802500 -27.112500 43.380000
779 1 -48.802500 -28.920000 45.187500
780 1 -50.610000 -27.112500 45.187500
781 1 -50.610000 -28.920000 46.995000