ITEM: TIMESTEP
0
ITEM: NUMBER OF ATOMS
369
ITEM: BOX BOUNDS pp pp pp
-20.000000 20.000000
-20.000000 20.000000
-20.000000 20.000000
ITEM: ATOMS id type x y z
1 1  -8.164966  -8.164966  16.329932
1 1  -7.756718  -7.756718  15.513435
1 1  -7.348469  -7.348469  14.696938
1 1  -6.940221  -6.940221  13.880442
1 1  -6.531973  -6.531973  13.063945
1 1  -6.123724  -6.123724  12.247449
1 1  -5.715476  -5.715476  11.430952
1 1  -5.307228  -5.307228  10.614456
1 1  -4.898979  -4.898979   9.797959
1 1  -4.490731  -4.490731   8.981462
1 1  -4.082483  -4.082483   8.164966
1 1  -3.674235  -3.674235   7.348469
1 1  -3.265986  -3.265986   6.531973
1 1  -2.857738  -2.857738   5.715476
1 1  -2.449490  -2.449490   4.898979
1 1  -2.041241  -2.041241   4.082483
1 1  -1.632993  -1.632993   3.265986
1 1  -1.224745  -1.224745   2.449490
1 1  -0.816497  -0.816497   1.632993
1 1  -0.408248  -0.408248   0.816497
1 1   0.000000   0.000000   0.000000
1 1   0.408248   0.408248  -0.816497
1 1   0.816497   0.816497  -1.632993
1 1   1.224745   1.224745  -2.449490
1 1   1.632993   1.632993  -3.265986
1 1   2.041241   2.041241  -4.082483
1 1   2.449490   2.449490  -4.898979
1 1   2.857738   2.857738  -5.715476
1 1   3.265986   3.265986  -6.531973
1 1   3.674235   3.674235  -7.348469
1 1   4.082483   4.082483  -8.164966
1 1   4.490731   4.490731  -8.981462
1 1   4.898979   4.898979  -9.797959
1 1   5.307228   5.307228 -10.614456
1 1   5.715476   5.715476 -11.430952
1 1   6.123724   6.123724 -12.247449
1 1   6.531973   6.531973 -13.063945
1 1   6.940221   6.940221 -13.880442
1 1   7.348469   7.348469 -14.696938
1 1   7.756718   7.756718 -15.513435
1 1   8.164966   8.164966 -16.329932
1 1  -6.721590  -6.721590  17.773307
1 1  -5.837716  -6.930256  16.886167
1 1  -5.141686  -7.219821  15.864654
1 1  -4.661672  -7.521979  14.728837
1 1  -4.404699  -7.767191  13.509973
1 1  -4.355957  -7.891491  12.247449
1 1  -4.480257  -7.842750  10.984925
1 1  -4.725469  -7.585776   9.766061
1 1  -5.027627  -7.105762   8.630244
1 1  -5.317193  -6.409733   7.608731
1 1  -5.525858  -5.525859   6.721590
1 1  -5.593236  -4.500697   5.975737
1 1  -5.472769  -3.394635   5.364257
1 1  -5.136286  -2.275980   4.867081
1 1  -4.576764  -1.214271   4.452952
1 1  -3.809009  -0.273475   4.082483
1 1  -2.868212   0.494281   3.712014
1 1  -1.806504   1.053804   3.297885
1 1  -0.687849   1.390286   2.800709
1 1   0.418213   1.510754   2.189228
1 1   1.443375   1.443376   1.443376
1 1   2.327250   1.234710   0.556235
1 1   3.023279   0.945145  -0.465278
1 1   3.503293   0.642987  -1.601095
1 1   3.760267   0.397775  -2.819959
1 1   3.809009   0.273475  -4.082483
1 1   3.684709   0.322216  -5.345007
1 1   3.439497   0.579190  -6.563871
1 1   3.137339   1.059203  -7.699688
1 1   2.847773   1.755233  -8.721201
1 1   2.639108   2.639107  -9.608341
1 1   2.571730   3.664269 -10.354194
1 1   2.692197   4.770331 -10.965675
1 1   3.028679   5.888986 -11.462851
1 1   3.588202   6.950694 -11.876980
1 1   4.355957   7.891491 -12.247449
1 1   5.296754   8.659246 -12.617918
1 1   6.358462   9.218769 -13.032047
1 1   7.477117   9.555252 -13.529223
1 1   8.583179   9.675720 -14.140703
1 1   9.608341   9.608342 -14.886556
1 1  -5.278214  -5.278214  19.216683
1 1  -3.918714  -6.103794  18.258899
1 1  -2.934904  -7.091173  17.032369
1 1  -2.383124  -8.103738  15.577232
1 1  -2.277425  -9.002410  13.956001
1 1  -2.588190  -9.659258  12.247449
1 1  -3.245039  -9.970024  10.538897
1 1  -4.143710  -9.864325   8.917666
1 1  -5.156275  -9.312545   7.462528
1 1  -6.143655  -8.328735   6.235999
1 1  -6.969234  -6.969234   5.278214
1 1  -7.512238  -5.327158   4.603005
1 1  -7.679552  -3.523283   4.196542
1 1  -7.414835  -1.694221   4.018686
1 1  -6.704038   0.020947   4.006924
1 1  -5.576776   1.494292   4.082483
1 1  -4.103431   2.621554   4.158041
1 1  -2.388262   3.332352   4.146279
1 1  -0.559201   3.597069   3.968424
1 1   1.244675   3.429756   3.561960
1 1   2.886751   2.886752   2.886751
1 1   4.246252   2.061172   1.928967
1 1   5.230062   1.073793   0.702438
1 1   5.781842   0.061228  -0.752700
1 1   5.887541  -0.837444  -2.373931
1 1   5.576776  -1.494292  -4.082483
1 1   4.919928  -1.805058  -5.791034
1 1   4.021256  -1.699359  -7.412266
1 1   3.008691  -1.147579  -8.867403
1 1   2.021312  -0.163770 -10.093933
1 1   1.195732   1.195731 -11.051717
1 1   0.652728   2.837807 -11.726926
1 1   0.485414   4.641682 -12.133390
1 1   0.750131   6.470744 -12.311246
1 1   1.460928   8.185913 -12.323008
1 1   2.588190   9.659258 -12.247449
1 1   4.061535  10.786520 -12.171891
1 1   5.776703  11.497318 -12.183652
1 1   7.605765  11.762035 -12.361508
1 1   9.409640  11.594722 -12.767972
1 1  11.051716  11.051718 -13.443180
1 1  -3.834839  -3.834839  20.660059
1 1  -1.999712  -5.277332  19.631631
1 1  -0.728121  -6.962525  18.200085
1 1  -0.104576  -8.685497  16.425627
1 1  -0.150151 -10.237629  14.402028
1 1  -0.820423 -11.427025  12.247449
1 1  -2.009820 -12.097298  10.092869
1 1  -3.561952 -12.142873   8.069271
1 1  -5.284924 -11.519328   6.294813
1 1  -6.970116 -10.247737   4.863267
1 1  -8.412610  -8.412610   3.834839
1 1  -9.431240  -6.153620   3.230274
1 1  -9.886335  -3.651931   3.028826
1 1  -9.693383  -1.112463   3.170291
1 1  -8.831312   1.256166   3.560896
1 1  -7.344543   3.262059   4.082483
1 1  -5.338650   4.748828   4.604069
1 1  -2.970021   5.610900   4.994674
1 1  -0.430553   5.803852   5.136139
1 1   2.071136   5.348758   4.934692
1 1   4.330126   4.330128   4.330127
1 1   6.165253   2.887634   3.301699
1 1   7.436845   1.202442   1.870153
1 1   8.060390  -0.520530   0.095695
1 1   8.014815  -2.072662  -1.927903
1 1   7.344543  -3.262059  -4.082482
1 1   6.155147  -3.932332  -6.237062
1 1   4.603015  -3.977907  -8.260660
1 1   2.880043  -3.354362 -10.035119
1 1   1.194850  -2.082772 -11.466665
1 1  -0.247643  -0.247645 -12.495093
1 1  -1.266274   2.011345 -13.099658
1 1  -1.721369   4.513034 -13.301106
1 1  -1.528418   7.052502 -13.159641
1 1  -0.666346   9.421131 -12.769036
1 1   0.820423  11.427024 -12.247450
1 1   2.826316  12.913794 -11.725863
1 1   5.194944  13.775866 -11.335258
1 1   7.734412  13.968818 -11.193793
1 1  10.236102  13.513724 -11.395240
1 1  12.495092  12.495094 -11.999805
1 1  -2.391463  -2.391463  22.103434
1 1  -0.080710  -4.450870  21.004362
1 1   1.478662  -6.833877  19.367800
1 1   2.173973  -9.267255  17.274022
1 1   1.977123 -11.472847  14.848056
1 1   0.947344 -13.194792  12.247449
1 1  -0.774601 -14.224572   9.646842
1 1  -2.980193 -14.421422   7.220876
1 1  -5.413572 -13.726111   5.127097
1 1  -7.796578 -12.166739   3.490535
1 1  -9.855985  -9.855986   2.391463
1 1 -11.350242  -6.980082   1.857542
1 1 -12.093117  -3.780579   1.861111
1 1 -11.971932  -0.530704   2.321896
1 1 -10.958586   2.491384   3.114869
1 1  -9.112310   5.029826   4.082482
1 1  -6.573868   6.876102   5.050096
1 1  -3.551780   7.889449   5.843069
1 1  -0.301905   8.010635   6.303855
1 1   2.897598   7.267760   6.307424
1 1   5.773502   5.773503   5.773503
1 1   8.084255   3.714096   4.674431
1 1   9.643627   1.331090   3.037869
1 1  10.338939  -1.102288   0.944091
1 1  10.142089  -3.307881  -1.481875
1 1   9.112310  -5.029826  -4.082482
1 1   7.390365  -6.059605  -6.683089
1 1   5.184774  -6.256456  -9.109055
1 1   2.751395  -5.561145 -11.202834
1 1   0.368389  -4.001774 -12.839396
1 1  -1.691019  -1.691021 -13.938469
1 1  -3.185275   1.184883 -14.472390
1 1  -3.928151   4.384386 -14.468821
1 1  -3.806966   7.634261 -14.008036
1 1  -2.793620  10.656349 -13.215064
1 1  -0.947345  13.194791 -12.247450
1 1   1.591096  15.041068 -11.279836
1 1   4.613185  16.054415 -10.486863
1 1   7.863060  16.175601 -10.026077
1 1  11.062563  15.432726 -10.022508
1 1  13.938467  13.938470 -10.556429
1 1  -0.948087  -0.948087  23.546810
1 1   1.838292  -3.624408  22.377094
1 1   3.685445  -6.705229  20.535516
1 1   4.452521  -9.849014  18.122417
1 1   4.104397 -12.708066  15.294084
1 1   2.715111 -14.962559  12.247449
1 1   0.460618 -16.351845   9.200814
1 1  -2.398434 -16.699970   6.372481
1 1  -5.542220 -15.932894   3.959382
1 1  -8.623040 -14.085741   2.117803
1 1 -11.299361 -11.299362   0.948087
1 1 -13.269244  -7.806544   0.484810
1 1 -14.299900  -3.909228   0.693395
1 1 -14.250480   0.051054   1.473501
1 1 -13.085860   3.726603   2.668841
1 1 -10.880077   6.797593   4.082482
1 1  -7.809087   9.003376   5.496124
1 1  -4.133539  10.167997   6.691464
1 1  -0.173257  10.217418   7.471570
1 1   3.724060   9.186762   7.680156
1 1   7.216877   7.216879   7.216878
1 1  10.003257   4.540559   6.047163
1 1  11.850410   1.459738   4.205585
1 1  12.617487  -1.684047   1.792486
1 1  12.269363  -4.543099  -1.035847
1 1  10.880077  -6.797592  -4.082482
1 1   8.625584  -8.186879  -7.129117
1 1   5.766532  -8.535004  -9.957450
1 1   2.622748  -7.767928 -12.370549
1 1  -0.458073  -5.920776 -14.212128
1 1  -3.134394  -3.134397 -15.381844
1 1  -5.104277   0.358420 -15.845122
1 1  -6.134934   4.255737 -15.636537
1 1  -6.085515   8.216019 -14.856431
1 1  -4.920894  11.891568 -13.661091
1 1  -2.715112  14.962558 -12.247450
1 1   0.355877  17.168341 -10.833809
1 1   4.031426  18.332963  -9.638468
1 1   7.991707  18.382384  -8.858362
1 1  11.889024  17.351728  -8.649776
1 1  15.381842  15.381846  -9.113053
1 1   0.495288   0.495288  24.990186
1 1   3.757294  -2.797947  23.749826
1 1   5.892227  -6.576580  21.703231
1 1   6.731070 -10.430772  18.970812
1 1   6.231671 -13.943284  15.740111
1 1   4.482878 -16.730326  12.247449
1 1   1.695836 -18.479119   8.754787
1 1  -1.816676 -18.978518   5.524086
1 1  -5.670868 -18.139676   2.791666
1 1  -9.449501 -16.004743   0.745071
1 1 -12.742736 -12.742738  -0.495288
1 1 -15.188245  -8.633006  -0.887922
1 1 -16.506683  -4.037876  -0.474320
1 1 -16.529029   0.632812   0.625106
1 1 -15.213133   4.961821   2.222813
1 1 -12.647844   8.565360   4.082482
1 1  -9.044306  11.130650   5.942151
1 1  -4.715298  12.446546   7.539859
1 1  -0.044609  12.424201   8.639285
1 1   4.550521  11.105764   9.052887
1 1   8.660253   8.660255   8.660254
1 1  11.922259   5.367021   7.419895
1 1  14.057193   1.588387   5.373300
1 1  14.896036  -2.265805   2.640881
1 1  14.396637  -5.778317  -0.589820
1 1  12.647844  -8.565359  -4.082482
1 1   9.860803 -10.314153  -7.575144
1 1   6.348291 -10.813553 -10.805845
1 1   2.494100  -9.974711 -13.538265
1 1  -1.284534  -7.839778 -15.584860
1 1  -4.577769  -4.577773 -16.825220
1 1  -7.023279  -0.468042 -17.217854
1 1  -8.341717   4.127089 -16.804253
1 1  -8.364063   8.797777 -15.704826
1 1  -7.048168  13.126786 -14.107119
1 1  -4.482879  16.730324 -12.247450
1 1  -0.879342  19.295615 -10.387781
1 1   3.449667  20.611511  -8.790074
1 1   8.120355  20.589167  -7.690647
1 1  12.715486  19.270730  -7.277045
1 1  16.825218  16.825222  -7.669678
1 1   1.938664   1.938664  26.433561
1 1   5.676296  -1.971485  25.122558
1 1   8.099010  -6.447932  22.870947
1 1   9.009618 -11.012531  19.819207
1 1   8.358945 -15.178503  16.186139
1 1   6.250645 -18.498093  12.247449
1 1   2.931055 -20.606393   8.308759
1 1  -1.234917 -21.257067   4.675691
1 1  -5.799516 -20.346459   1.623951
1 1 -10.275963 -17.923745  -0.627660
1 1 -14.186112 -14.186113  -1.938664
1 1 -17.107247  -9.459468  -2.260654
1 1 -18.713466  -4.166524  -1.642036
1 1 -18.807577   1.214571  -0.223289
1 1 -17.340407   6.197040   1.776785
1 1 -14.415611  10.333126   4.082482
1 1 -10.279525  13.257924   6.388179
1 1  -5.297056  14.725094   8.388254
1 1   0.084039  14.630983   9.807001
1 1   5.376983  13.024766  10.425619
1 1  10.103628  10.103631  10.103630
1 1  13.841260   6.193483   8.792627
1 1  16.263976   1.717035   6.541016
1 1  17.174584  -2.847563   3.489276
1 1  16.523911  -7.013536  -0.143792
1 1  14.415611 -10.333126  -4.082482
1 1  11.096022 -12.441427  -8.021171
1 1   6.930050 -13.092101 -11.654239
1 1   2.365452 -12.181494 -14.705980
1 1  -2.110996  -9.758780 -16.957592
1 1  -6.021145  -6.021149 -18.268596
1 1  -8.942280  -1.294504 -18.590586
1 1 -10.548499   3.998440 -17.971968
1 1 -10.642611   9.379535 -16.553222
1 1  -9.175442  14.362004 -14.553147
1 1  -6.250646  18.498091 -12.247451
1 1  -2.114561  21.422889  -9.941754
1 1   2.867908  22.890060  -7.941679
1 1   8.249003  22.795950  -6.522932
1 1  13.541947  21.189732  -5.904313
1 1  18.268593  18.268598  -6.226302
1 1   3.382040   3.382040  27.876937
1 1   7.595297  -1.145023  26.495290
1 1  10.305793  -6.319284  24.038662
1 1  11.288167 -11.594289  20.667601
1 1  10.486219 -16.413722  16.632166
1 1   8.018412 -20.265860  12.247449
1 1   4.166274 -22.733667   7.862732
1 1  -0.653159 -23.535615   3.827296
1 1  -5.928164 -22.553242   0.456236
1 1 -11.102425 -19.842747  -2.000392
1 1 -15.629488 -15.629489  -3.382040
1 1 -19.026249 -10.285930  -3.633386
1 1 -20.920248  -4.295172  -2.809751
1 1 -21.086126   1.796329  -1.071684
1 1 -19.467681   7.432258   1.330758
1 1 -16.183378  12.100893   4.082482
1 1 -11.514744  15.385197   6.834206
1 1  -5.878815  17.003643   9.236648
1 1   0.212686  16.837766  10.974716
1 1   6.203444  14.943768  11.798351
1 1  11.547004  11.547007  11.547005
1 1  15.760262   7.019945  10.165359
1 1  18.470758   1.845684   7.708731
1 1  19.453133  -3.429322   4.337671
1 1  18.651185  -8.248754   0.302236
1 1  16.183379 -12.100893  -4.082481
1 1  12.331241 -14.568700  -8.467199
1 1   7.511809 -15.370649 -12.502634
1 1   2.236804 -14.388277 -15.873695
1 1  -2.937457 -11.677782 -18.330323
1 1  -7.464520  -7.464525 -19.711971
1 1 -10.861282  -2.120966 -19.963318
1 1 -12.755282   3.869792 -19.139684
1 1 -12.921160   9.961293 -17.401617
1 1 -11.302716  15.597223 -14.999175
1 1  -8.018413  20.265858 -12.247451
1 1  -3.349780  23.550163  -9.495727
1 1   2.286149  25.168608  -7.093284
1 1   8.377650  25.002733  -5.355216
1 1  14.368408  23.108735  -4.531581
1 1  19.711968  19.711974  -4.782926
